 VARIABLES = "X", "U" 
 ZONE I=         500
   0.0000000000000000        0.0000000000000000     
   2.0040080160320640E-003   0.0000000000000000     
   4.0080160320641279E-003   0.0000000000000000     
   6.0120240480961915E-003   0.0000000000000000     
   8.0160320641282558E-003   0.0000000000000000     
   1.0020040080160320E-002   0.0000000000000000     
   1.2024048096192385E-002   0.0000000000000000     
   1.4028056112224449E-002   0.0000000000000000     
   1.6032064128256512E-002   0.0000000000000000     
   1.8036072144288574E-002   0.0000000000000000     
   2.0040080160320637E-002   0.0000000000000000     
   2.2044088176352700E-002   0.0000000000000000     
   2.4048096192384762E-002   0.0000000000000000     
   2.6052104208416825E-002   0.0000000000000000     
   2.8056112224448888E-002   0.0000000000000000     
   3.0060120240480950E-002   0.0000000000000000     
   3.2064128256513016E-002   0.0000000000000000     
   3.4068136272545083E-002   0.0000000000000000     
   3.6072144288577149E-002   0.0000000000000000     
   3.8076152304609215E-002   0.0000000000000000     
   4.0080160320641281E-002   0.0000000000000000     
   4.2084168336673347E-002   0.0000000000000000     
   4.4088176352705413E-002   0.0000000000000000     
   4.6092184368737479E-002   0.0000000000000000     
   4.8096192384769546E-002   0.0000000000000000     
   5.0100200400801612E-002   0.0000000000000000     
   5.2104208416833678E-002   0.0000000000000000     
   5.4108216432865744E-002   0.0000000000000000     
   5.6112224448897810E-002   0.0000000000000000     
   5.8116232464929876E-002   0.0000000000000000     
   6.0120240480961942E-002   0.0000000000000000     
   6.2124248496994008E-002   0.0000000000000000     
   6.4128256513026075E-002   0.0000000000000000     
   6.6132264529058141E-002   0.0000000000000000     
   6.8136272545090207E-002   0.0000000000000000     
   7.0140280561122273E-002   0.0000000000000000     
   7.2144288577154339E-002   0.0000000000000000     
   7.4148296593186405E-002   0.0000000000000000     
   7.6152304609218471E-002   0.0000000000000000     
   7.8156312625250537E-002   0.0000000000000000     
   8.0160320641282604E-002   0.0000000000000000     
   8.2164328657314670E-002   0.0000000000000000     
   8.4168336673346736E-002   0.0000000000000000     
   8.6172344689378802E-002   0.0000000000000000     
   8.8176352705410868E-002   0.0000000000000000     
   9.0180360721442934E-002   0.0000000000000000     
   9.2184368737475000E-002   0.0000000000000000     
   9.4188376753507067E-002   0.0000000000000000     
   9.6192384769539133E-002   0.0000000000000000     
   9.8196392785571199E-002   0.0000000000000000     
  0.10020040080160326        0.0000000000000000     
  0.10220440881763533        0.0000000000000000     
  0.10420841683366740        0.0000000000000000     
  0.10621242484969946        0.0000000000000000     
  0.10821643286573153        0.0000000000000000     
  0.11022044088176360        0.0000000000000000     
  0.11222444889779566        0.0000000000000000     
  0.11422845691382773        0.0000000000000000     
  0.11623246492985979        0.0000000000000000     
  0.11823647294589186        0.0000000000000000     
  0.12024048096192393        0.0000000000000000     
  0.12224448897795599        0.0000000000000000     
  0.12424849699398806        0.0000000000000000     
  0.12625250501002011        0.0000000000000000     
  0.12825651302605218        0.0000000000000000     
  0.13026052104208424        0.0000000000000000     
  0.13226452905811631        0.0000000000000000     
  0.13426853707414838        0.0000000000000000     
  0.13627254509018044        0.0000000000000000     
  0.13827655310621251        0.0000000000000000     
  0.14028056112224457        0.0000000000000000     
  0.14228456913827664        0.0000000000000000     
  0.14428857715430871        0.0000000000000000     
  0.14629258517034077        0.0000000000000000     
  0.14829659318637284        0.0000000000000000     
  0.15030060120240490        0.0000000000000000     
  0.15230460921843697        0.0000000000000000     
  0.15430861723446904        0.0000000000000000     
  0.15631262525050110        0.0000000000000000     
  0.15831663326653317        0.0000000000000000     
  0.16032064128256523        0.0000000000000000     
  0.16232464929859730        0.0000000000000000     
  0.16432865731462937        0.0000000000000000     
  0.16633266533066143        0.0000000000000000     
  0.16833667334669350        0.0000000000000000     
  0.17034068136272557        0.0000000000000000     
  0.17234468937875763        0.0000000000000000     
  0.17434869739478970        0.0000000000000000     
  0.17635270541082176        0.0000000000000000     
  0.17835671342685383        0.0000000000000000     
  0.18036072144288590        0.0000000000000000     
  0.18236472945891796        0.0000000000000000     
  0.18436873747495003        0.0000000000000000     
  0.18637274549098209        0.0000000000000000     
  0.18837675350701416        0.0000000000000000     
  0.19038076152304623        0.0000000000000000     
  0.19238476953907829        0.0000000000000000     
  0.19438877755511036        0.0000000000000000     
  0.19639278557114243        0.0000000000000000     
  0.19839679358717449        0.0000000000000000     
  0.20040080160320656        0.0000000000000000     
  0.20240480961923862        0.0000000000000000     
  0.20440881763527069        0.0000000000000000     
  0.20641282565130276        0.0000000000000000     
  0.20841683366733482        0.0000000000000000     
  0.21042084168336689        0.0000000000000000     
  0.21242484969939895        0.0000000000000000     
  0.21442885771543102        0.0000000000000000     
  0.21643286573146309        0.0000000000000000     
  0.21843687374749515        0.0000000000000000     
  0.22044088176352722        0.0000000000000000     
  0.22244488977955928        0.0000000000000000     
  0.22444889779559135        0.0000000000000000     
  0.22645290581162342        0.0000000000000000     
  0.22845691382765548        0.0000000000000000     
  0.23046092184368755        0.0000000000000000     
  0.23246492985971962        0.0000000000000000     
  0.23446893787575168        0.0000000000000000     
  0.23647294589178375        0.0000000000000000     
  0.23847695390781581        0.0000000000000000     
  0.24048096192384788        0.0000000000000000     
  0.24248496993987995        0.0000000000000000     
  0.24448897795591201        0.0000000000000000     
  0.24649298597194408        0.0000000000000000     
  0.24849699398797614        0.0000000000000000     
  0.25050100200400821        0.0000000000000000     
  0.25250501002004028        0.0000000000000000     
  0.25450901803607234        0.0000000000000000     
  0.25651302605210441        0.0000000000000000     
  0.25851703406813648        0.0000000000000000     
  0.26052104208416854        0.0000000000000000     
  0.26252505010020061        0.0000000000000000     
  0.26452905811623267        0.0000000000000000     
  0.26653306613226474        0.0000000000000000     
  0.26853707414829681        0.0000000000000000     
  0.27054108216432887        0.0000000000000000     
  0.27254509018036094        0.0000000000000000     
  0.27454909819639300        0.0000000000000000     
  0.27655310621242507        0.0000000000000000     
  0.27855711422845714        0.0000000000000000     
  0.28056112224448920        0.0000000000000000     
  0.28256513026052127        0.0000000000000000     
  0.28456913827655334        0.0000000000000000     
  0.28657314629258540        0.0000000000000000     
  0.28857715430861747        0.0000000000000000     
  0.29058116232464953        0.0000000000000000     
  0.29258517034068160        0.0000000000000000     
  0.29458917835671367        0.0000000000000000     
  0.29659318637274573        0.0000000000000000     
  0.29859719438877780        0.0000000000000000     
  0.30060120240480986       -3.9443045261050590E-031
  0.30260521042084193       -1.1399040080443621E-028
  0.30460921843687400       -1.5844665711816633E-026
  0.30661322645290606       -1.4104529273903181E-024
  0.30861723446893813       -9.0324848171400869E-023
  0.31062124248497019       -4.4316640018855069E-021
  0.31262525050100226       -1.7322784379580960E-019
  0.31462925851703433       -5.5383497111806564E-018
  0.31663326653306639       -1.4754366718783251E-016
  0.31863727454909846       -3.3197215606335263E-015
  0.32064128256513053       -6.3714924110133979E-014
  0.32264529058116259       -1.0507681143179747E-012
  0.32464929859719466       -1.4967987883952321E-011
  0.32665330661322672       -1.8481008056036472E-010
  0.32865731462925879       -1.9817479878699132E-009
  0.33066132264529086       -1.8465760839835848E-008
  0.33266533066132292       -1.4938075080605598E-007
  0.33466933867735499       -1.0465723094078003E-006
  0.33667334669338705       -6.3232721571947852E-006
  0.33867735470941912       -3.2731612207447804E-005
  0.34068136272545119       -1.4375793614086453E-004
  0.34268537074148325       -5.2802865742923675E-004
  0.34468937875751532       -1.5859398560835640E-003
  0.34669338677354739       -3.7491972389512764E-003
  0.34869739478957945       -6.4587758324942852E-003
  0.35070140280561152       -6.4587758324942861E-003
  0.35270541082164358        1.2726258540595430E-003
  0.35470941883767565        1.5047946059953769E-002
  0.35671342685370772        1.7959654977055373E-002
  0.35871743486973978       -3.9726218790135451E-003
  0.36072144288577185       -2.3346470946996878E-002
  0.36272545090180391        4.4625903665922173E-004
  0.36472945891783598        2.5913862073380024E-002
  0.36673346693386805       -9.0992487271394223E-003
  0.36873747494990011       -2.2718065400777303E-002
  0.37074148296593218        2.6391581371964783E-002
  0.37274549098196424       -4.8735888802789451E-004
  0.37474949899799631       -2.6599676240633037E-002
  0.37675350701402838        3.2653738165797128E-002
  0.37875751503006044       -1.6799362545518920E-002
  0.38076152304609251       -8.2016235104086094E-003
  0.38276553106212458        2.9078751945954578E-002
  0.38476953907815664       -3.9111267385483837E-002
  0.38677354709418871        3.8232357711195625E-002
  0.38877755511022077       -2.9968255067703550E-002
  0.39078156312625284        1.8480780933931823E-002
  0.39278557114228491       -6.9705355339157171E-003
  0.39478957915831697       -2.6851897478202824E-003
  0.39679358717434904        9.6266769042318290E-003
  0.39879759519038110       -1.3515011945370595E-002
  0.40080160320641317        1.4101827915294518E-002
  0.40280561122244524       -1.0968335005108160E-002
  0.40480961923847730        3.4847258473010567E-003
  0.40681362725450937        8.9388023023315166E-003
  0.40881763527054144       -2.6208253772315143E-002
  0.41082164328657350        4.6465300230137924E-002
  0.41282565130260557       -6.4809383777539753E-002
  0.41482965931863763        7.2690394172112510E-002
  0.41683366733466970       -5.9678466883032480E-002
  0.41883767535070177        1.9542330961739574E-002
  0.42084168336673383        3.9603722043663442E-002
  0.42284569138276590       -8.7561394071149365E-002
  0.42484969939879796        8.1082939239459556E-002
  0.42685370741483003       -1.6060657104574050E-003
  0.42885771543086210       -9.6904126632249427E-002
  0.43086172344689416        9.9534460458719151E-002
  0.43286573146292623        3.7493184501036059E-002
  0.43486973947895829      -0.14632564720169117     
  0.43687374749499036        1.0118200023879420E-002
  0.43887775551102243       0.18459821990402392     
  0.44088176352705449        1.0233578292174084E-002
  0.44288577154308656      -0.24198760555261856     
  0.44488977955911863      -0.19637083251802595     
  0.44689378757515069       0.13423685242343464     
  0.44889779559118276       0.51307553506457260     
  0.45090180360721482       0.78017117303305683     
  0.45290581162324689       0.91835968130374956     
  0.45490981963927896       0.97460437325830940     
  0.45691382765531102       0.99329413776787034     
  0.45891783567134309       0.99848179250526237     
  0.46092184368737515       0.99970308206853042     
  0.46292585170340722       0.99994955990899892     
  0.46492985971943929       0.99999252732204535     
  0.46693386773547135       0.99999903196084505     
  0.46893787575150342       0.99999989018133517     
  0.47094188376753549       0.99999998908541210     
  0.47294589178356755       0.99999999905024994     
  0.47494989979959962       0.99999999992776734     
  0.47695390781563168       0.99999999999521250     
  0.47895791583166375       0.99999999999972466     
  0.48096192384769582       0.99999999999998634     
  0.48296593186372788       0.99999999999999922     
  0.48496993987975995       0.99999999999999978     
  0.48697394789579201       0.99999999999999978     
  0.48897795591182408       0.99999999999999978     
  0.49098196392785615       0.99999999999999978     
  0.49298597194388821       0.99999999999999978     
  0.49498997995992028       0.99999999999999978     
  0.49699398797595234       0.99999999999999978     
  0.49899799599198441        1.0000000000000000     
  0.50100200400801642        1.0000000000000000     
  0.50300601202404849        1.0000000000000000     
  0.50501002004008055        1.0000000000000000     
  0.50701402805611262        1.0000000000000000     
  0.50901803607214469        1.0000000000000000     
  0.51102204408817675        1.0000000000000000     
  0.51302605210420882        1.0000000000000000     
  0.51503006012024088        1.0000000000000000     
  0.51703406813627295        1.0000000000000000     
  0.51903807615230502        1.0000000000000000     
  0.52104208416833708        1.0000000000000000     
  0.52304609218436915        1.0000000000000000     
  0.52505010020040122        1.0000000000000000     
  0.52705410821643328        1.0000000000000000     
  0.52905811623246535        1.0000000000000000     
  0.53106212424849741        1.0000000000000000     
  0.53306613226452948        1.0000000000000000     
  0.53507014028056155        1.0000000000000000     
  0.53707414829659361        1.0000000000000000     
  0.53907815631262568        1.0000000000000000     
  0.54108216432865774        1.0000000000000000     
  0.54308617234468981        1.0000000000000000     
  0.54509018036072188        1.0000000000000000     
  0.54709418837675394        1.0000000000000000     
  0.54909819639278601        1.0000000000000000     
  0.55110220440881807        1.0000000000000000     
  0.55310621242485014        1.0000000000000000     
  0.55511022044088221        1.0000000000000000     
  0.55711422845691427        1.0000000000000000     
  0.55911823647294634        1.0000000000000000     
  0.56112224448897841        1.0000000000000000     
  0.56312625250501047        1.0000000000000000     
  0.56513026052104254        1.0000000000000000     
  0.56713426853707460        1.0000000000000000     
  0.56913827655310667        1.0000000000000000     
  0.57114228456913874        1.0000000000000000     
  0.57314629258517080        1.0000000000000000     
  0.57515030060120287        1.0000000000000000     
  0.57715430861723493        1.0000000000000000     
  0.57915831663326700        1.0000000000000000     
  0.58116232464929907        1.0000000000000000     
  0.58316633266533113        1.0000000000000000     
  0.58517034068136320        1.0000000000000000     
  0.58717434869739527        1.0000000000000000     
  0.58917835671342733        1.0000000000000000     
  0.59118236472945940        1.0000000000000000     
  0.59318637274549146        1.0000000000000000     
  0.59519038076152353        1.0000000000000000     
  0.59719438877755560        1.0000000000000000     
  0.59919839679358766        1.0000000000000000     
  0.60120240480961973        1.0000000000000000     
  0.60320641282565179        1.0000000000000000     
  0.60521042084168386        1.0000000000000000     
  0.60721442885771593        1.0000000000000000     
  0.60921843687374799        1.0000000000000000     
  0.61122244488978006        1.0000000000000000     
  0.61322645290581212        1.0000000000000000     
  0.61523046092184419        1.0000000000000000     
  0.61723446893787626        1.0000000000000000     
  0.61923847695390832        1.0000000000000000     
  0.62124248496994039        1.0000000000000000     
  0.62324649298597246        1.0000000000000000     
  0.62525050100200452        1.0000000000000000     
  0.62725450901803659        1.0000000000000000     
  0.62925851703406865        1.0000000000000000     
  0.63126252505010072        1.0000000000000000     
  0.63326653306613279        1.0000000000000000     
  0.63527054108216485        1.0000000000000000     
  0.63727454909819692        1.0000000000000000     
  0.63927855711422898        1.0000000000000000     
  0.64128256513026105        1.0000000000000000     
  0.64328657314629312        1.0000000000000000     
  0.64529058116232518        1.0000000000000000     
  0.64729458917835725        1.0000000000000000     
  0.64929859719438932        1.0000000000000000     
  0.65130260521042138        1.0000000000000000     
  0.65330661322645345        1.0000000000000000     
  0.65531062124248551        1.0000000000000000     
  0.65731462925851758        1.0000000000000000     
  0.65931863727454965        1.0000000000000000     
  0.66132264529058171        1.0000000000000000     
  0.66332665330661378        1.0000000000000000     
  0.66533066132264584        1.0000000000000000     
  0.66733466933867791        1.0000000000000000     
  0.66933867735470998        1.0000000000000000     
  0.67134268537074204        1.0000000000000000     
  0.67334669338677411        1.0000000000000000     
  0.67535070140280618        1.0000000000000000     
  0.67735470941883824        1.0000000000000000     
  0.67935871743487031        1.0000000000000000     
  0.68136272545090237        1.0000000000000000     
  0.68336673346693444        1.0000000000000000     
  0.68537074148296651        1.0000000000000000     
  0.68737474949899857        1.0000000000000000     
  0.68937875751503064        1.0000000000000000     
  0.69138276553106270        1.0000000000000000     
  0.69338677354709477        1.0000000000000000     
  0.69539078156312684        1.0000000000000000     
  0.69739478957915890        1.0000000000000000     
  0.69939879759519097        1.0000000000000000     
  0.70140280561122303        1.0000000000000000     
  0.70340681362725510        1.0000000000000000     
  0.70541082164328717        1.0000000000000000     
  0.70741482965931923        1.0000000000000000     
  0.70941883767535130        1.0000000000000000     
  0.71142284569138337        1.0000000000000000     
  0.71342685370741543        1.0000000000000000     
  0.71543086172344750        1.0000000000000000     
  0.71743486973947956        1.0000000000000000     
  0.71943887775551163        1.0000000000000031     
  0.72144288577154370        1.0000000000000637     
  0.72344689378757576        1.0000000000010507     
  0.72545090180360783        1.0000000000149676     
  0.72745490981963989        1.0000000001848097     
  0.72945891783567196        1.0000000019817481     
  0.73146292585170403        1.0000000184657607     
  0.73346693386773609        1.0000001493807507     
  0.73547094188376816        1.0000010465723090     
  0.73747494989980023        1.0000063232721574     
  0.73947895791583229        1.0000327316122073     
  0.74148296593186436        1.0001437579361407     
  0.74348697394789642        1.0005280286574287     
  0.74549098196392849        1.0015859398560838     
  0.74749498997996056        1.0037491972389514     
  0.74949899799599262        1.0064587758324945     
  0.75150300601202469        1.0064587758324941     
  0.75350701402805675       0.99872737414594048     
  0.75551102204408882       0.98495205394004681     
  0.75751503006012089       0.98204034502294524     
  0.75951903807615295        1.0039726218790133     
  0.76152304609218502        1.0233464709469975     
  0.76352705410821708       0.99955374096334071     
  0.76553106212424915       0.97408613792662013     
  0.76753507014028122        1.0090992487271395     
  0.76953907815631328        1.0227180654007773     
  0.77154308617234535       0.97360841862803560     
  0.77354709418837742        1.0004873588880279     
  0.77555110220440948        1.0265996762406329     
  0.77755511022044155       0.96734626183420258     
  0.77955911823647361        1.0167993625455187     
  0.78156312625250568        1.0082016235104088     
  0.78356713426853775       0.97092124805404534     
  0.78557114228456981        1.0391112673854834     
  0.78757515030060188       0.96176764228880485     
  0.78957915831663394        1.0299682550677030     
  0.79158316633266601       0.98151921906606820     
  0.79358717434869808        1.0069705355339165     
  0.79559118236473014        1.0026851897478211     
  0.79759519038076221       0.99037332309576853     
  0.79959919839679428        1.0135150119453704     
  0.80160320641282634       0.98589817208470598     
  0.80360721442885841        1.0109683350051082     
  0.80561122244489047       0.99651527415269936     
  0.80761523046092254       0.99106119769766787     
  0.80961923847695461        1.0262082537723147     
  0.81162324649298667       0.95353469976986194     
  0.81362725450901874        1.0648093837775394     
  0.81563126252505080       0.92730960582788691     
  0.81763527054108287        1.0596784668830326     
  0.81963927855711494       0.98045766903826082     
  0.82164328657314700       0.96039627795633731     
  0.82364729458917907        1.0875613940711493     
  0.82565130260521113       0.91891706076054025     
  0.82765531062124320        1.0016060657104568     
  0.82965931863727527        1.0969041266322497     
  0.83166332665330733       0.90046553954128061     
  0.83366733466933940       0.96250681549896488     
  0.83567134268537147        1.1463256472016912     
  0.83767535070140353       0.98988179997612047     
  0.83967935871743560       0.81540178009597597     
  0.84168336673346766       0.98976642170782592     
  0.84368737474949973        1.2419876055526182     
  0.84569138276553180        1.1963708325180269     
  0.84769539078156386       0.86576314757656536     
  0.84969939879759593       0.48692446493542757     
  0.85170340681362799       0.21982882696694389     
  0.85370741482966006        8.1640318696250547E-002
  0.85571142284569213        2.5395626741690006E-002
  0.85771543086172419        6.7058622321302316E-003
  0.85971943887775626        1.5182074947372056E-003
  0.86172344689378833        2.9691793146962122E-004
  0.86372745490982039        5.0440091000592910E-005
  0.86573146292585246        7.4726779543274315E-006
  0.86773547094188452        9.6803915446478120E-007
  0.86973947895791659        1.0981866468622569E-007
  0.87174348697394866        1.0914587574430011E-008
  0.87374749498998072        9.4975008844069169E-010
  0.87575150300601279        7.2232609612559988E-011
  0.87775551102204485        4.7876214981781466E-012
  0.87975951903807692        2.7537834294230487E-013
  0.88176352705410899        1.3665798561136309E-014
  0.88376753507014105        5.8056475067283055E-016
  0.88577154308617312        2.0896734735437944E-017
  0.88777555110220518        6.2849656976185599E-019
  0.88977955911823725        1.5499916826026401E-020
  0.89178356713426932        3.0522978802703015E-022
  0.89378757515030138        4.6144517258516238E-024
  0.89579158316633345        5.0279233085619019E-026
  0.89779559118236552        3.5143753327596076E-028
  0.89979959919839758        1.1832913578315177E-030
  0.90180360721442965        0.0000000000000000     
  0.90380761523046171        0.0000000000000000     
  0.90581162324649378        0.0000000000000000     
  0.90781563126252585        0.0000000000000000     
  0.90981963927855791        0.0000000000000000     
  0.91182364729458998        0.0000000000000000     
  0.91382765531062204        0.0000000000000000     
  0.91583166332665411        0.0000000000000000     
  0.91783567134268618        0.0000000000000000     
  0.91983967935871824        0.0000000000000000     
  0.92184368737475031        0.0000000000000000     
  0.92384769539078238        0.0000000000000000     
  0.92585170340681444        0.0000000000000000     
  0.92785571142284651        0.0000000000000000     
  0.92985971943887857        0.0000000000000000     
  0.93186372745491064        0.0000000000000000     
  0.93386773547094271        0.0000000000000000     
  0.93587174348697477        0.0000000000000000     
  0.93787575150300684        0.0000000000000000     
  0.93987975951903890        0.0000000000000000     
  0.94188376753507097        0.0000000000000000     
  0.94388777555110304        0.0000000000000000     
  0.94589178356713510        0.0000000000000000     
  0.94789579158316717        0.0000000000000000     
  0.94989979959919923        0.0000000000000000     
  0.95190380761523130        0.0000000000000000     
  0.95390781563126337        0.0000000000000000     
  0.95591182364729543        0.0000000000000000     
  0.95791583166332750        0.0000000000000000     
  0.95991983967935957        0.0000000000000000     
  0.96192384769539163        0.0000000000000000     
  0.96392785571142370        0.0000000000000000     
  0.96593186372745576        0.0000000000000000     
  0.96793587174348783        0.0000000000000000     
  0.96993987975951990        0.0000000000000000     
  0.97194388777555196        0.0000000000000000     
  0.97394789579158403        0.0000000000000000     
  0.97595190380761609        0.0000000000000000     
  0.97795591182364816        0.0000000000000000     
  0.97995991983968023        0.0000000000000000     
  0.98196392785571229        0.0000000000000000     
  0.98396793587174436        0.0000000000000000     
  0.98597194388777643        0.0000000000000000     
  0.98797595190380849        0.0000000000000000     
  0.98997995991984056        0.0000000000000000     
  0.99198396793587262        0.0000000000000000     
  0.99398797595190469        0.0000000000000000     
  0.99599198396793676        0.0000000000000000     
  0.99799599198396882        0.0000000000000000     
   1.0000000000000009        0.0000000000000000     
