 VARIABLES = "X", "U" 
 ZONE I=         500
   0.00000000000000000000000000000000000         0.00000000000000000000000000000000000      
   2.00400801603206412825651302605210419E-0003   0.00000000000000000000000000000000000      
   4.00801603206412825651302605210420838E-0003   0.00000000000000000000000000000000000      
   6.01202404809619238476953907815631219E-0003   0.00000000000000000000000000000000000      
   8.01603206412825651302605210420841675E-0003   0.00000000000000000000000000000000000      
   1.00200400801603206412825651302605213E-0002   0.00000000000000000000000000000000000      
   1.20240480961923847695390781563126259E-0002   0.00000000000000000000000000000000000      
   1.40280561122244488977955911823647304E-0002   0.00000000000000000000000000000000000      
   1.60320641282565130260521042084168335E-0002   0.00000000000000000000000000000000000      
   1.80360721442885771543086172344689381E-0002   0.00000000000000000000000000000000000      
   2.00400801603206412825651302605210426E-0002   0.00000000000000000000000000000000000      
   2.20440881763527054108216432865731472E-0002   0.00000000000000000000000000000000000      
   2.40480961923847695390781563126252518E-0002   0.00000000000000000000000000000000000      
   2.60521042084168336673346693386773563E-0002   0.00000000000000000000000000000000000      
   2.80561122244488977955911823647294609E-0002   0.00000000000000000000000000000000000      
   3.00601202404809619238476953907815655E-0002   0.00000000000000000000000000000000000      
   3.20641282565130260521042084168336670E-0002   0.00000000000000000000000000000000000      
   3.40681362725450901803607214428857686E-0002   0.00000000000000000000000000000000000      
   3.60721442885771543086172344689378701E-0002   0.00000000000000000000000000000000000      
   3.80761523046092184368737474949899717E-0002   0.00000000000000000000000000000000000      
   4.00801603206412825651302605210420732E-0002   0.00000000000000000000000000000000000      
   4.20841683366733466933867735470941748E-0002   0.00000000000000000000000000000000000      
   4.40881763527054108216432865731462763E-0002   0.00000000000000000000000000000000000      
   4.60921843687374749498997995991983779E-0002   0.00000000000000000000000000000000000      
   4.80961923847695390781563126252504794E-0002   0.00000000000000000000000000000000000      
   5.01002004008016032064128256513025810E-0002   0.00000000000000000000000000000000000      
   5.21042084168336673346693386773546826E-0002   0.00000000000000000000000000000000000      
   5.41082164328657314629258517034067841E-0002   0.00000000000000000000000000000000000      
   5.61122244488977955911823647294588857E-0002   0.00000000000000000000000000000000000      
   5.81162324649298597194388777555109872E-0002   0.00000000000000000000000000000000000      
   6.01202404809619238476953907815630888E-0002   0.00000000000000000000000000000000000      
   6.21242484969939879759519038076151903E-0002   0.00000000000000000000000000000000000      
   6.41282565130260521042084168336672979E-0002   0.00000000000000000000000000000000000      
   6.61322645290581162324649298597193995E-0002   0.00000000000000000000000000000000000      
   6.81362725450901803607214428857715010E-0002   0.00000000000000000000000000000000000      
   7.01402805611222444889779559118236026E-0002   0.00000000000000000000000000000000000      
   7.21442885771543086172344689378757041E-0002   0.00000000000000000000000000000000000      
   7.41482965931863727454909819639278057E-0002   0.00000000000000000000000000000000000      
   7.61523046092184368737474949899799072E-0002   0.00000000000000000000000000000000000      
   7.81563126252505010020040080160320088E-0002   0.00000000000000000000000000000000000      
   8.01603206412825651302605210420841103E-0002   0.00000000000000000000000000000000000      
   8.21643286573146292585170340681362119E-0002   0.00000000000000000000000000000000000      
   8.41683366733466933867735470941883135E-0002   0.00000000000000000000000000000000000      
   8.61723446893787575150300601202404150E-0002   0.00000000000000000000000000000000000      
   8.81763527054108216432865731462925166E-0002   0.00000000000000000000000000000000000      
   9.01803607214428857715430861723446181E-0002   0.00000000000000000000000000000000000      
   9.21843687374749498997995991983967197E-0002   0.00000000000000000000000000000000000      
   9.41883767535070140280561122244488212E-0002   0.00000000000000000000000000000000000      
   9.61923847695390781563126252505009228E-0002   0.00000000000000000000000000000000000      
   9.81963927855711422845691382765530243E-0002   0.00000000000000000000000000000000000      
  0.100200400801603206412825651302605126         0.00000000000000000000000000000000000      
  0.102204408817635270541082164328657227         0.00000000000000000000000000000000000      
  0.104208416833667334669338677354709329         0.00000000000000000000000000000000000      
  0.106212424849699398797595190380761431         0.00000000000000000000000000000000000      
  0.108216432865731462925851703406813532         0.00000000000000000000000000000000000      
  0.110220440881763527054108216432865634         0.00000000000000000000000000000000000      
  0.112224448897795591182364729458917735         0.00000000000000000000000000000000000      
  0.114228456913827655310621242484969837         0.00000000000000000000000000000000000      
  0.116232464929859719438877755511021938         0.00000000000000000000000000000000000      
  0.118236472945891783567134268537074040         0.00000000000000000000000000000000000      
  0.120240480961923847695390781563126141         0.00000000000000000000000000000000000      
  0.122244488977955911823647294589178243         0.00000000000000000000000000000000000      
  0.124248496993987975951903807615230345         0.00000000000000000000000000000000000      
  0.126252505010020040080160320641282446         0.00000000000000000000000000000000000      
  0.128256513026052104208416833667334548         0.00000000000000000000000000000000000      
  0.130260521042084168336673346693386649         0.00000000000000000000000000000000000      
  0.132264529058116232464929859719438751         0.00000000000000000000000000000000000      
  0.134268537074148296593186372745490852         0.00000000000000000000000000000000000      
  0.136272545090180360721442885771542954         0.00000000000000000000000000000000000      
  0.138276553106212424849699398797595055         0.00000000000000000000000000000000000      
  0.140280561122244488977955911823647157         0.00000000000000000000000000000000000      
  0.142284569138276553106212424849699259         0.00000000000000000000000000000000000      
  0.144288577154308617234468937875751360         0.00000000000000000000000000000000000      
  0.146292585170340681362725450901803462         0.00000000000000000000000000000000000      
  0.148296593186372745490981963927855563         0.00000000000000000000000000000000000      
  0.150300601202404809619238476953907665         0.00000000000000000000000000000000000      
  0.152304609218436873747494989979959766         0.00000000000000000000000000000000000      
  0.154308617234468937875751503006011868         0.00000000000000000000000000000000000      
  0.156312625250501002004008016032063969         0.00000000000000000000000000000000000      
  0.158316633266533066132264529058116071         0.00000000000000000000000000000000000      
  0.160320641282565130260521042084168173         0.00000000000000000000000000000000000      
  0.162324649298597194388777555110220274         0.00000000000000000000000000000000000      
  0.164328657314629258517034068136272376         0.00000000000000000000000000000000000      
  0.166332665330661322645290581162324477         0.00000000000000000000000000000000000      
  0.168336673346693386773547094188376579         0.00000000000000000000000000000000000      
  0.170340681362725450901803607214428680         0.00000000000000000000000000000000000      
  0.172344689378757515030060120240480782         0.00000000000000000000000000000000000      
  0.174348697394789579158316633266532883         0.00000000000000000000000000000000000      
  0.176352705410821643286573146292584985         0.00000000000000000000000000000000000      
  0.178356713426853707414829659318637087         0.00000000000000000000000000000000000      
  0.180360721442885771543086172344689188         0.00000000000000000000000000000000000      
  0.182364729458917835671342685370741290         0.00000000000000000000000000000000000      
  0.184368737474949899799599198396793391         0.00000000000000000000000000000000000      
  0.186372745490981963927855711422845493         0.00000000000000000000000000000000000      
  0.188376753507014028056112224448897594         0.00000000000000000000000000000000000      
  0.190380761523046092184368737474949696         0.00000000000000000000000000000000000      
  0.192384769539078156312625250501001797         0.00000000000000000000000000000000000      
  0.194388777555110220440881763527053899         0.00000000000000000000000000000000000      
  0.196392785571142284569138276553106001         0.00000000000000000000000000000000000      
  0.198396793587174348697394789579158102         0.00000000000000000000000000000000000      
  0.200400801603206412825651302605210204         0.00000000000000000000000000000000000      
  0.202404809619238476953907815631262305         0.00000000000000000000000000000000000      
  0.204408817635270541082164328657314407         0.00000000000000000000000000000000000      
  0.206412825651302605210420841683366508         0.00000000000000000000000000000000000      
  0.208416833667334669338677354709418610         0.00000000000000000000000000000000000      
  0.210420841683366733466933867735470711         0.00000000000000000000000000000000000      
  0.212424849699398797595190380761522813         0.00000000000000000000000000000000000      
  0.214428857715430861723446893787574915         0.00000000000000000000000000000000000      
  0.216432865731462925851703406813627016         0.00000000000000000000000000000000000      
  0.218436873747494989979959919839679118         0.00000000000000000000000000000000000      
  0.220440881763527054108216432865731219         0.00000000000000000000000000000000000      
  0.222444889779559118236472945891783321         0.00000000000000000000000000000000000      
  0.224448897795591182364729458917835422         0.00000000000000000000000000000000000      
  0.226452905811623246492985971943887524         0.00000000000000000000000000000000000      
  0.228456913827655310621242484969939625         0.00000000000000000000000000000000000      
  0.230460921843687374749498997995991727         0.00000000000000000000000000000000000      
  0.232464929859719438877755511022043829         0.00000000000000000000000000000000000      
  0.234468937875751503006012024048095930         0.00000000000000000000000000000000000      
  0.236472945891783567134268537074148032         0.00000000000000000000000000000000000      
  0.238476953907815631262525050100200133         0.00000000000000000000000000000000000      
  0.240480961923847695390781563126252235         0.00000000000000000000000000000000000      
  0.242484969939879759519038076152304336         0.00000000000000000000000000000000000      
  0.244488977955911823647294589178356438         0.00000000000000000000000000000000000      
  0.246492985971943887775551102204408539         0.00000000000000000000000000000000000      
  0.248496993987975951903807615230460641         0.00000000000000000000000000000000000      
  0.250501002004008016032064128256512767         0.00000000000000000000000000000000000      
  0.252505010020040080160320641282564892         0.00000000000000000000000000000000000      
  0.254509018036072144288577154308617018         0.00000000000000000000000000000000000      
  0.256513026052104208416833667334669143         0.00000000000000000000000000000000000      
  0.258517034068136272545090180360721269         0.00000000000000000000000000000000000      
  0.260521042084168336673346693386773395         0.00000000000000000000000000000000000      
  0.262525050100200400801603206412825520         0.00000000000000000000000000000000000      
  0.264529058116232464929859719438877646         0.00000000000000000000000000000000000      
  0.266533066132264529058116232464929772         0.00000000000000000000000000000000000      
  0.268537074148296593186372745490981897         0.00000000000000000000000000000000000      
  0.270541082164328657314629258517034023         0.00000000000000000000000000000000000      
  0.272545090180360721442885771543086149         0.00000000000000000000000000000000000      
  0.274549098196392785571142284569138274         0.00000000000000000000000000000000000      
  0.276553106212424849699398797595190400         0.00000000000000000000000000000000000      
  0.278557114228456913827655310621242525         0.00000000000000000000000000000000000      
  0.280561122244488977955911823647294651         0.00000000000000000000000000000000000      
  0.282565130260521042084168336673346777         0.00000000000000000000000000000000000      
  0.284569138276553106212424849699398902         0.00000000000000000000000000000000000      
  0.286573146292585170340681362725451028         0.00000000000000000000000000000000000      
  0.288577154308617234468937875751503154         0.00000000000000000000000000000000000      
  0.290581162324649298597194388777555279         0.00000000000000000000000000000000000      
  0.292585170340681362725450901803607405         0.00000000000000000000000000000000000      
  0.294589178356713426853707414829659530         0.00000000000000000000000000000000000      
  0.296593186372745490981963927855711656         0.00000000000000000000000000000000000      
  0.298597194388777555110220440881763782         0.00000000000000000000000000000000000      
  0.300601202404809619238476953907815907         1.00000000000000000000000000000000000      
  0.302605210420841683366733466933868033         1.00000000000000000000000000000000000      
  0.304609218436873747494989979959920159         1.00000000000000000000000000000000000      
  0.306613226452905811623246492985972284         1.00000000000000000000000000000000000      
  0.308617234468937875751503006012024410         1.00000000000000000000000000000000000      
  0.310621242484969939879759519038076535         1.00000000000000000000000000000000000      
  0.312625250501002004008016032064128661         1.00000000000000000000000000000000000      
  0.314629258517034068136272545090180787         1.00000000000000000000000000000000000      
  0.316633266533066132264529058116232912         1.00000000000000000000000000000000000      
  0.318637274549098196392785571142285038         1.00000000000000000000000000000000000      
  0.320641282565130260521042084168337164         1.00000000000000000000000000000000000      
  0.322645290581162324649298597194389289         1.00000000000000000000000000000000000      
  0.324649298597194388777555110220441415         1.00000000000000000000000000000000000      
  0.326653306613226452905811623246493540         1.00000000000000000000000000000000000      
  0.328657314629258517034068136272545666         1.00000000000000000000000000000000000      
  0.330661322645290581162324649298597792         1.00000000000000000000000000000000000      
  0.332665330661322645290581162324649917         1.00000000000000000000000000000000000      
  0.334669338677354709418837675350702043         1.00000000000000000000000000000000000      
  0.336673346693386773547094188376754169         1.00000000000000000000000000000000000      
  0.338677354709418837675350701402806294         1.00000000000000000000000000000000000      
  0.340681362725450901803607214428858420         1.00000000000000000000000000000000000      
  0.342685370741482965931863727454910546         1.00000000000000000000000000000000000      
  0.344689378757515030060120240480962671         1.00000000000000000000000000000000000      
  0.346693386773547094188376753507014797         1.00000000000000000000000000000000000      
  0.348697394789579158316633266533066922         1.00000000000000000000000000000000000      
  0.350701402805611222444889779559119048         1.00000000000000000000000000000000000      
  0.352705410821643286573146292585171174         1.00000000000000000000000000000000000      
  0.354709418837675350701402805611223299         1.00000000000000000000000000000000000      
  0.356713426853707414829659318637275425         1.00000000000000000000000000000000000      
  0.358717434869739478957915831663327551         1.00000000000000000000000000000000000      
  0.360721442885771543086172344689379676         1.00000000000000000000000000000000000      
  0.362725450901803607214428857715431802         1.00000000000000000000000000000000000      
  0.364729458917835671342685370741483927         1.00000000000000000000000000000000000      
  0.366733466933867735470941883767536053         1.00000000000000000000000000000000000      
  0.368737474949899799599198396793588179         1.00000000000000000000000000000000000      
  0.370741482965931863727454909819640304         1.00000000000000000000000000000000000      
  0.372745490981963927855711422845692430         1.00000000000000000000000000000000000      
  0.374749498997995991983967935871744556         1.00000000000000000000000000000000000      
  0.376753507014028056112224448897796681         1.00000000000000000000000000000000000      
  0.378757515030060120240480961923848807         1.00000000000000000000000000000000000      
  0.380761523046092184368737474949900932         1.00000000000000000000000000000000000      
  0.382765531062124248496993987975953058         1.00000000000000000000000000000000000      
  0.384769539078156312625250501002005184         1.00000000000000000000000000000000000      
  0.386773547094188376753507014028057309         1.00000000000000000000000000000000000      
  0.388777555110220440881763527054109435         1.00000000000000000000000000000000000      
  0.390781563126252505010020040080161561         1.00000000000000000000000000000000000      
  0.392785571142284569138276553106213686         1.00000000000000000000000000000000000      
  0.394789579158316633266533066132265812         1.00000000000000000000000000000000000      
  0.396793587174348697394789579158317938         1.00000000000000000000000000000000000      
  0.398797595190380761523046092184370063         1.00000000000000000000000000000000000      
  0.400801603206412825651302605210422189         1.00000000000000000000000000000000000      
  0.402805611222444889779559118236474314         1.00000000000000000000000000000000000      
  0.404809619238476953907815631262526440         1.00000000000000000000000000000000000      
  0.406813627254509018036072144288578566         1.00000000000000000000000000000000000      
  0.408817635270541082164328657314630691         1.00000000000000000000000000000000000      
  0.410821643286573146292585170340682817         1.00000000000000000000000000000000000      
  0.412825651302605210420841683366734943         1.00000000000000000000000000000000000      
  0.414829659318637274549098196392787068         1.00000000000000000000000000000000000      
  0.416833667334669338677354709418839194         1.00000000000000000000000000000000000      
  0.418837675350701402805611222444891319         1.00000000000000000000000000000000000      
  0.420841683366733466933867735470943445         1.00000000000000000000000000000000000      
  0.422845691382765531062124248496995571         1.00000000000000000000000000000000000      
  0.424849699398797595190380761523047696         1.00000000000000000000000000000000000      
  0.426853707414829659318637274549099822         1.00000000000000000000000000000000000      
  0.428857715430861723446893787575151948         1.00000000000000000000000000000000000      
  0.430861723446893787575150300601204073         1.00000000000000000000000000000000000      
  0.432865731462925851703406813627256199         1.00000000000000000000000000000000000      
  0.434869739478957915831663326653308324         1.00000000000000000000000000000000000      
  0.436873747494989979959919839679360450         1.00000000000000000000000000000000000      
  0.438877755511022044088176352705412576         1.00000000000000000000000000000000000      
  0.440881763527054108216432865731464701         1.00000000000000000000000000000000000      
  0.442885771543086172344689378757516827         1.00000000000000000000000000000000000      
  0.444889779559118236472945891783568953         1.00000000000000000000000000000000000      
  0.446893787575150300601202404809621078         1.00000000000000000000000000000000000      
  0.448897795591182364729458917835673204         1.00000000000000000000000000000000000      
  0.450901803607214428857715430861725329         1.00000000000000000000000000000000000      
  0.452905811623246492985971943887777455         1.00000000000000000000000000000000000      
  0.454909819639278557114228456913829581         1.00000000000000000000000000000000000      
  0.456913827655310621242484969939881706         1.00000000000000000000000000000000000      
  0.458917835671342685370741482965933832         1.00000000000000000000000000000000000      
  0.460921843687374749498997995991985958         1.00000000000000000000000000000000000      
  0.462925851703406813627254509018038083         1.00000000000000000000000000000000000      
  0.464929859719438877755511022044090209         1.00000000000000000000000000000000000      
  0.466933867735470941883767535070142335         1.00000000000000000000000000000000000      
  0.468937875751503006012024048096194460         1.00000000000000000000000000000000000      
  0.470941883767535070140280561122246586         1.00000000000000000000000000000000000      
  0.472945891783567134268537074148298711         1.00000000000000000000000000000000000      
  0.474949899799599198396793587174350837         1.00000000000000000000000000000000000      
  0.476953907815631262525050100200402963         1.00000000000000000000000000000000000      
  0.478957915831663326653306613226455088         1.00000000000000000000000000000000000      
  0.480961923847695390781563126252507214         1.00000000000000000000000000000000000      
  0.482965931863727454909819639278559340         1.00000000000000000000000000000000000      
  0.484969939879759519038076152304611465         1.00000000000000000000000000000000000      
  0.486973947895791583166332665330663591         1.00000000000000000000000000000000000      
  0.488977955911823647294589178356715716         1.00000000000000000000000000000000000      
  0.490981963927855711422845691382767842         1.00000000000000000000000000000000000      
  0.492985971943887775551102204408819968         1.00000000000000000000000000000000000      
  0.494989979959919839679358717434872093         1.00000000000000000000000000000000000      
  0.496993987975951903807615230460924219         1.00000000000000000000000000000000000      
  0.498997995991983967935871743486976345         1.00000000000000000000000000000000000      
  0.501002004008016032064128256513028422         1.00000000000000000000000000000000000      
  0.503006012024048096192384769539080548         1.00000000000000000000000000000000000      
  0.505010020040080160320641282565132673         1.00000000000000000000000000000000000      
  0.507014028056112224448897795591184799         1.00000000000000000000000000000000000      
  0.509018036072144288577154308617236925         1.00000000000000000000000000000000000      
  0.511022044088176352705410821643289050         1.00000000000000000000000000000000000      
  0.513026052104208416833667334669341176         1.00000000000000000000000000000000000      
  0.515030060120240480961923847695393301         1.00000000000000000000000000000000000      
  0.517034068136272545090180360721445427         1.00000000000000000000000000000000000      
  0.519038076152304609218436873747497553         1.00000000000000000000000000000000000      
  0.521042084168336673346693386773549678         1.00000000000000000000000000000000000      
  0.523046092184368737474949899799601804         1.00000000000000000000000000000000000      
  0.525050100200400801603206412825653930         1.00000000000000000000000000000000000      
  0.527054108216432865731462925851706055         1.00000000000000000000000000000000000      
  0.529058116232464929859719438877758181         1.00000000000000000000000000000000000      
  0.531062124248496993987975951903810307         1.00000000000000000000000000000000000      
  0.533066132264529058116232464929862432         1.00000000000000000000000000000000000      
  0.535070140280561122244488977955914558         1.00000000000000000000000000000000000      
  0.537074148296593186372745490981966683         1.00000000000000000000000000000000000      
  0.539078156312625250501002004008018809         1.00000000000000000000000000000000000      
  0.541082164328657314629258517034070935         1.00000000000000000000000000000000000      
  0.543086172344689378757515030060123060         1.00000000000000000000000000000000000      
  0.545090180360721442885771543086175186         1.00000000000000000000000000000000000      
  0.547094188376753507014028056112227312         1.00000000000000000000000000000000000      
  0.549098196392785571142284569138279437         1.00000000000000000000000000000000000      
  0.551102204408817635270541082164331563         1.00000000000000000000000000000000000      
  0.553106212424849699398797595190383688         1.00000000000000000000000000000000000      
  0.555110220440881763527054108216435814         1.00000000000000000000000000000000000      
  0.557114228456913827655310621242487940         1.00000000000000000000000000000000000      
  0.559118236472945891783567134268540065         1.00000000000000000000000000000000000      
  0.561122244488977955911823647294592191         1.00000000000000000000000000000000000      
  0.563126252505010020040080160320644317         1.00000000000000000000000000000000000      
  0.565130260521042084168336673346696442         1.00000000000000000000000000000000000      
  0.567134268537074148296593186372748568         1.00000000000000000000000000000000000      
  0.569138276553106212424849699398800693         1.00000000000000000000000000000000000      
  0.571142284569138276553106212424852819         1.00000000000000000000000000000000000      
  0.573146292585170340681362725450904945         1.00000000000000000000000000000000000      
  0.575150300601202404809619238476957070         1.00000000000000000000000000000000000      
  0.577154308617234468937875751503009196         1.00000000000000000000000000000000000      
  0.579158316633266533066132264529061322         1.00000000000000000000000000000000000      
  0.581162324649298597194388777555113447         1.00000000000000000000000000000000000      
  0.583166332665330661322645290581165573         1.00000000000000000000000000000000000      
  0.585170340681362725450901803607217699         1.00000000000000000000000000000000000      
  0.587174348697394789579158316633269824         1.00000000000000000000000000000000000      
  0.589178356713426853707414829659321950         1.00000000000000000000000000000000000      
  0.591182364729458917835671342685374075         1.00000000000000000000000000000000000      
  0.593186372745490981963927855711426201         1.00000000000000000000000000000000000      
  0.595190380761523046092184368737478327         1.00000000000000000000000000000000000      
  0.597194388777555110220440881763530452         1.00000000000000000000000000000000000      
  0.599198396793587174348697394789582578         1.00000000000000000000000000000000000      
  0.601202404809619238476953907815634704         1.00000000000000000000000000000000000      
  0.603206412825651302605210420841686829         1.00000000000000000000000000000000000      
  0.605210420841683366733466933867738955         1.00000000000000000000000000000000000      
  0.607214428857715430861723446893791080         1.00000000000000000000000000000000000      
  0.609218436873747494989979959919843206         1.00000000000000000000000000000000000      
  0.611222444889779559118236472945895332         1.00000000000000000000000000000000000      
  0.613226452905811623246492985971947457         1.00000000000000000000000000000000000      
  0.615230460921843687374749498997999583         1.00000000000000000000000000000000000      
  0.617234468937875751503006012024051709         1.00000000000000000000000000000000000      
  0.619238476953907815631262525050103834         1.00000000000000000000000000000000000      
  0.621242484969939879759519038076155960         1.00000000000000000000000000000000000      
  0.623246492985971943887775551102208085         1.00000000000000000000000000000000000      
  0.625250501002004008016032064128260211         1.00000000000000000000000000000000000      
  0.627254509018036072144288577154312337         1.00000000000000000000000000000000000      
  0.629258517034068136272545090180364462         1.00000000000000000000000000000000000      
  0.631262525050100200400801603206416588         1.00000000000000000000000000000000000      
  0.633266533066132264529058116232468714         1.00000000000000000000000000000000000      
  0.635270541082164328657314629258520839         1.00000000000000000000000000000000000      